% Model:              copper_v2.mph
% Version:            COMSOL 5.4.0.295
% Date:               Aug 24 2022, 16:22
% Table:              Tabella 3 - ADMITTANCE (abs(es.Y11))
% freq (GHz)             d=0.05, 10*log10(abs(es.Y11))d=0.058621, 10*log10(abs(es.Y11))d=0.067241, 10*log10(abs(es.Y11))d=0.075862, 10*log10(abs(es.Y11))d=0.084483, 10*log10(abs(es.Y11))d=0.093103, 10*log10(abs(es.Y11))d=0.10172, 10*log10(abs(es.Y11))d=0.11034, 10*log10(abs(es.Y11))d=0.11897, 10*log10(abs(es.Y11))d=0.12759, 10*log10(abs(es.Y11))d=0.13621, 10*log10(abs(es.Y11))d=0.14483, 10*log10(abs(es.Y11))d=0.15345, 10*log10(abs(es.Y11))d=0.16207, 10*log10(abs(es.Y11))d=0.17069, 10*log10(abs(es.Y11))d=0.17931, 10*log10(abs(es.Y11))d=0.18793, 10*log10(abs(es.Y11))d=0.19655, 10*log10(abs(es.Y11))d=0.20517, 10*log10(abs(es.Y11))d=0.21379, 10*log10(abs(es.Y11))d=0.22241, 10*log10(abs(es.Y11))d=0.23103, 10*log10(abs(es.Y11))d=0.23966, 10*log10(abs(es.Y11))d=0.24828, 10*log10(abs(es.Y11))d=0.2569, 10*log10(abs(es.Y11))d=0.26552, 10*log10(abs(es.Y11))d=0.27414, 10*log10(abs(es.Y11))d=0.28276, 10*log10(abs(es.Y11))d=0.29138, 10*log10(abs(es.Y11))d=0.3, 10*log10(abs(es.Y11))
1                        -20.33191767456504       -20.331057710400277      -20.330211221475892      -20.329377420234675      -20.32855554177334       -20.32774484007822       -20.32694458281048       -20.326154043733066      -20.3253724913718        -20.324599171655315      -20.32383328078125       -20.323073921783777      -20.322320032881986      -20.321570264570266      -20.320822757928852      -20.320074718245596      -20.319321524375304      -20.31855465570658       -20.317756102301452      -20.316879739657246      -20.31576551148714       -20.313809673270818      -20.31768927062879       -20.31583932210947       -20.314823716391174      -20.314009119518946      -20.313272348967747      -20.312575621129238      -20.31190359414717       -20.31124884235457
1.004004004004004        -20.312923191865856      -20.312094901753056      -20.31128036225086       -20.310478504239594      -20.309688254973675      -20.3089085374636        -20.30813826818294       -20.307376351169427      -20.306621665551653      -20.30587304188736       -20.3051292199638        -20.304388776003364      -20.30364999910524       -20.30291068379348       -20.302167792118325      -20.301416974606074      -20.300652382624897      -20.299870617137238      -20.299107898590183      -20.298654859852554      -20.298781791484327      -20.298343062958324      -20.297573074601264      -20.296802053888975      -20.296065819789902      -20.295357614686917      -20.294669846954633      -20.293997448267117      -20.293337195315786      -20.292686993494982
1.008008008008008        -20.293599801320493      -20.292856284732363      -20.292127224766485      -20.291410275681955      -20.290703055359366      -20.290003202968045      -20.28930843608967       -20.288616601235184      -20.287925713237264      -20.287233983869726      -20.286539852556977      -20.285842065018702      -20.285139938057718      -20.284434217359642      -20.28372969895807       -20.28304251865254       -20.282414654459945      -20.28190775204379       -20.28148663213525       -20.280983137434326      -20.280353315172444      -20.27966300432157       -20.278958396899522      -20.278256675731257      -20.27756266337727       -20.276877154560154      -20.27619981019154       -20.27553005991745       -20.2748673579873        -20.27421123796902
1.012012012012012        -20.27473405854331       -20.274216962261317      -20.273696059536626      -20.273165054916152      -20.272618944791976      -20.272054159360906      -20.271468583892613      -20.270861498372494      -20.270233502139234      -20.269586523080196      -20.268924057726775      -20.26825183318675       -20.267578964620444      -20.266918758087265      -20.266285423176576      -20.26568105276125       -20.265081935416497      -20.26445391544524       -20.263784279489137      -20.263083246596718      -20.262366095947698      -20.261643773224243      -20.26092240367952       -20.260205068843568      -20.2594932330163        -20.258787550037624      -20.25808827123035       -20.257395444398995      -20.256709010616262      -20.256028852016055
1.016016016016016        -20.259075022011146      -20.25869329159127       -20.258229184660948      -20.25769081510035       -20.257088018302547      -20.256431360991787      -20.25573150843818       -20.254998916942462      -20.254243761595202      -20.25347590691029       -20.252704534918614      -20.251936868338582      -20.251175837334863      -20.250418257048878      -20.24965655982834       -20.248884212657252      -20.24809988355875       -20.247306945739         -20.246510517615413      -20.24571521046836       -20.244924347369796      -20.24414003637547       -20.24336349424622       -20.242595350457343      -20.241835865885413      -20.24108507464074       -20.240342872170565      -20.239609069236177      -20.238883425053334      -20.238165667867452
1.02002002002002         -20.246729388435682      -20.245802633770236      -20.24483074141605       -20.243830558133688      -20.24281540447529       -20.241795751771324      -20.240779697475496      -20.239773174246707      -20.238779898901118      -20.237801233378406      -20.23683633232182       -20.235882926929524      -20.2349386259518        -20.234002060226107      -20.233073254158747      -20.232153247104097      -20.231243448497974      -20.23034513856325       -20.229459233806423      -20.22858625071074       -20.22772636577097       -20.226879501825024      -20.226045407410208      -20.225223718705845      -20.22441400404651       -20.223615794420375      -20.22282860373611       -20.222051941985715      -20.22128532360832       -20.22052827266129
1.024024024024024        -20.232906612827236      -20.231508489205243      -20.230147403847752      -20.2288241275795        -20.22753829924102       -20.2262886029095        -20.225072946419008      -20.22388872090497       -20.2227331575955        -20.22160370774854       -20.220498320875194      -20.219415534920856      -20.218354388993603      -20.21731424344992       -20.216294599309236      -20.215294969742608      -20.21431481324469       -20.213353513990548      -20.21241038945454       -20.211484709497675      -20.21057571737464       -20.209682648095352      -20.20880474263538       -20.207941258034975      -20.20709147404428       -20.206254697110026      -20.20543026242727       -20.204617534640285      -20.20381590763451       -20.20302480374017
1.028028028028028        -20.21701188522785       -20.21548425405853       -20.21401145807303       -20.21258888393924       -20.211212265288122      -20.209877758454923      -20.20858199687175       -20.207322102364333      -20.20609564784428       -20.20490058348343       -20.20373514788146       -20.202597784434026      -20.201487075148705      -20.200401695367297      -20.19934038686209       -20.19830194426357       -20.197285209742326      -20.19628907199337       -20.195312466922147      -20.194354378556003      -20.193413839481845      -20.192489930578546      -20.191581780059515      -20.190688561948843      -20.18980949414463       -20.188943836214687      -20.188090887046055      -20.187249982442275      -20.186420492736875      -20.18560182047052
1.032032032032032        -20.200198146977225      -20.198662492335945      -20.197177726530118      -20.195740014487487      -20.19434599546588       -20.19299271453585       -20.191677554708605      -20.190398174829134      -20.189152456778938      -20.18793846337617       -20.186754406509436      -20.185598623906458      -20.18446956252387       -20.183365766634275      -20.182285869035177      -20.181228584221383      -20.180192702739642      -20.179177086238475      -20.178180662933332      -20.17720242334072       -20.17624141621556       -20.17529674466897       -20.174367562465303      -20.173453070504426      -20.17255251349626       -20.17166517683197       -20.17079038365273       -20.16992749211335       -20.169075892835266      -20.168235006540996
1.0360360360360361       -20.183061612306304      -20.181547840894897      -20.180079982859706      -20.178655119972436      -20.177270599553133      -20.175923995707905      -20.174613078007404      -20.173335786403864      -20.172090211153343      -20.170874576615535      -20.16968722798365       -20.168526620196193      -20.16739130846972       -20.166279940047275      -20.165191246878244      -20.164124039034512      -20.1630771987291        -20.16204967484585       -20.161040477915325      -20.160048675489612      -20.15907338787944       -20.158113784223097      -20.15716907886139       -20.156238527994994      -20.155321426602676      -20.154417105600203      -20.153524929220943      -20.15264429260053       -20.151774619548853      -20.15091536049388
1.04004004004004         -20.165849538791385      -20.16436344526571       -20.162918942672903      -20.16151359870754       -20.16014516249954       -20.15881154621284       -20.157510809318246      -20.15624114499569       -20.15500086824535       -20.15378840538778       -20.152602284710373      -20.151441128076293      -20.15030364335496       -20.149188617564448      -20.148094910638868      -20.147021449750202      -20.145967224125553      -20.144931280310217      -20.143912717832983      -20.142910685235897      -20.141924376434485      -20.140953027378163      -20.13999591298351       -20.139052344315687      -20.138121665995573      -20.137203253812356      -20.13629651252298       -20.13540087382186       -20.134515794465607      -20.13364075453881
1.044044044044044        -20.148663419146857      -20.14720221308838       -20.145778959572553      -20.144391563266474      -20.14303807293131       -20.141716668895413      -20.14042565183474       -20.13916343268436       -20.137928523538044      -20.136719529417544      -20.13553514081235       -20.134374126905534      -20.13323532941289       -20.132117656972042      -20.13102008002599       -20.1299416261519        -20.128881375791448      -20.127838458343913      -20.126812048587006      -20.125801363394444      -20.124805658722124      -20.123824226837694      -20.122856393771023      -20.12190151696501       -20.120958983108487      -20.120028206134563      -20.11910862536947       -20.118199703818505      -20.117300926576757      -20.116411799353603
1.048048048048048        -20.131541378560183      -20.13009984758098       -20.128693356171347      -20.127320063441772      -20.12597824794534       -20.124666297822603      -20.123382701882214      -20.12212604151639       -20.120894983363403      -20.119688272639287      -20.118504727070107      -20.11734323136372       -20.116202732166983      -20.115082233459983      -20.1139807923442        -20.11289751518628       -20.111831554082734      -20.110782103615172      -20.10974839786801       -20.108729707684372      -20.107725338137676      -20.106734626199135      -20.105756938583184      -20.104791669754714      -20.103838240083604      -20.102896094133374      -20.101964699072255      -20.101043543195782      -20.10013213455149       -20.099229999656654
1.052052052052052        -20.11449600119044       -20.113068988298686      -20.11167473619444       -20.110311594201594      -20.108978013141755      -20.107672537280664      -20.10639379701537       -20.105140502225428      -20.10391143621991       -20.10270545021949       -20.101521458319766      -20.100358432887646      -20.09921540034808       -20.098091437322978      -20.096985667088113      -20.09589725631765       -20.09482541208898       -20.093769379123483      -20.09272843724137       -20.09170189901081       -20.090689107573994      -20.089689434633875      -20.088702278587583      -20.087727062793476      -20.086763233960184      -20.085810260647143      -20.084867631867045      -20.083934855781543      -20.083011458482453      -20.082096982851155
1.0560560560560561       -20.097530179704492      -20.096113283467822      -20.094727368290435      -20.093370924800574      -20.092042532032576      -20.09074085067561       -20.08946461692465       -20.088212636871887      -20.08698378138415       -20.085776981417425      -20.084591223725585      -20.08342554692442       -20.08227903787702       -20.08115082836952       -20.080040092050133      -20.078946041606645      -20.077867926160575      -20.076805028858246      -20.075756664640988      -20.074722178178497      -20.073700941951216      -20.072692354468305      -20.071695838609983      -20.07071084008327       -20.0697368259817        -20.068773283440244      -20.06781971837747       -20.066875654317773      -20.065940631287113      -20.06501420477626
1.06006006006006         -20.080643283414755      -20.079232917896483      -20.0778521311575        -20.076499519405985      -20.075173757683373      -20.073873594053552      -20.072597844293224      -20.071345387033         -20.07011515930487       -20.068906152456215      -20.067717408395232      -20.06654801613609       -20.065397108615834      -20.064263859757677      -20.063147481758218      -20.062047222578357      -20.060962363619467      -20.05989221756877       -20.05883612639881       -20.057793459507906      -20.05676361198947       -20.05574600301914       -20.054740074350065      -20.053745288907102      -20.05276112947197       -20.051787097451736      -20.050822711723946      -20.049867507552158      -20.048921035566284      -20.047982860802357
1.064064064064064        -20.06383351940089       -20.062426796732716      -20.061048533562055      -20.05969740595593       -20.058372161733384      -20.057071615335943      -20.055794643126028      -20.054540179071534      -20.053307210779398      -20.05209477584509       -20.050901958488456      -20.049727886449293      -20.04857172811921       -20.04743268988815       -20.04631001368673       -20.04520297470698       -20.04411087928603       -20.043033062938672      -20.041968888526203      -20.040917744549894      -20.03987904355888       -20.038852220662804      -20.037836732140732      -20.03683205413848       -20.03583768144715       -20.034853126356357      -20.0338779175762        -20.032911599222402      -20.0319537298597        -20.0310038815987
1.0680680680680683       -20.047098833258076      -20.045693422283776      -20.044315564721956      -20.042963997918598      -20.041637525644656      -20.040335013465857      -20.039055384487405      -20.037797615438073      -20.03656073306186       -20.035343810788735      -20.034145965659174      -20.032966355479296      -20.031804176186554      -20.03065865940689       -20.0295290701872        -20.028414704887766      -20.027314889221127      -20.026228976425045      -20.025156345558408      -20.02409639990985       -20.023048565510045      -20.022012289738903      -20.020987040020387      -20.019972302597637      -20.018967581382164      -20.01797239687115       -20.01698628512738       -20.01600879681698       -20.015039496300282      -20.01407796077157
1.072072072072072        -20.030437243119334      -20.029031246683445      -20.027652059825677      -20.026298467589534      -20.024969317360597      -20.023663514608327      -20.022380018964135      -20.02111784060436       -20.01987603691054       -20.01865370938149       -20.017450000775273      -20.016264092460247      -20.01509520195735       -20.013942580657037      -20.012805511695902      -20.011683307979688      -20.01057531034029       -20.00948088581582       -20.008399426043553      -20.007330345756593      -20.00627308137597       -20.005227089690393      -20.004191846616727      -20.003166846034826      -20.00215159869077       -20.00114563116313       -20.00014848488729       -19.999159715233134      -19.998178890631955      -19.997205591748564
1.0760760760760761       -20.013846950900962      -20.01243880885724       -20.011056857493617      -20.009699919470208      -20.008366876600977      -20.007056665877872      -20.00576827580247       -20.004500742996928      -20.003253149069245      -20.002024617710255      -20.000814312002202      -19.99962143192031       -19.998445212011152      -19.997284919232577      -19.99613985094173       -19.995009333018995      -19.99389271811647       -19.99278938402103       -19.991698732122515      -19.990620185978713      -19.98955318996948       -19.98849720803269       -19.987451722475782      -19.986416232856794      -19.98539025492947       -19.984373319647354      -19.98336497222216       -19.982364771232167      -19.98137228777656       -19.980387104671887
1.08008008008008         -19.99732636668378       -19.99591478170163       -19.99452886581399       -19.993167471693102      -19.991829508630783      -19.99051393878101       -19.989219773687893      -19.987946071073452      -19.986691931862424      -19.985456497423147      -19.984238947006187      -19.98303849536353       -19.981854390533403      -19.98068591177653       -19.97953236765163       -19.97839309421854       -19.977267453358586      -19.976154831202834      -19.975054636659507      -19.97396630003268       -19.97288927172508       -19.971823021018253      -19.97076703492407       -19.96972081710196       -19.968683886836654      -19.96765577807166       -19.966636038494         -19.965624228666098      -19.96461992120093       -19.96362269997676
1.0840840840840842       -19.98087410119533       -19.97945798255358       -19.97806708799478       -19.976700294376236      -19.97535653312694       -19.97403478666183       -19.972734085064438      -19.9714535030143        -19.970192156937728      -19.968949202362644      -19.967723831460287      -19.966515270757714      -19.965322779007135      -19.964145645198883      -19.96298318670636       -19.961834747552242      -19.960699696786072      -19.959577426964433      -19.958467352725453      -19.957368909450192      -19.95628155200413       -19.955204753552344      -19.95413800444262       -19.953080811151157      -19.952032695285926      -19.950993192643004      -19.949961852311667      -19.94893823582423       -19.947921916346786      -19.94691247790739
1.088088088088088        -19.96448894885479       -19.96306736985594       -19.961670630688687      -19.96029762786522       -19.95894731078893       -19.95761867830575       -19.956310775510648      -19.955022690786787      -19.953753553057428      -19.952502529232298      -19.951268821832056      -19.950051666775988      -19.948850331319306      -19.94766411212791       -19.946492333479306      -19.9453343455796        -19.944189522987156      -19.94305726313457       -19.941936984940988      -19.94082812750777       -19.939730148890938      -19.93864252494427       -19.937564748227505      -19.936496326974627      -19.935436784117222      -19.934385656358636      -19.93334249329465       -19.932306856576822      -19.931278319114718      -19.93025646431353
1.092092092092092        -19.948169870470547      -19.94674203603894       -19.945338705688126      -19.943958792017423      -19.942601259118355      -19.941265119237187      -19.939949429681793      -19.93865328995173       -19.93737583907231       -19.93611625311544       -19.934873742891593      -19.933647551798558      -19.93243695381431       -19.931241251622012      -19.930059774856506      -19.92889187846272       -19.927736941156773      -19.926594363981806      -19.925463568951034      -19.924343997771064      -19.92323511063927       -19.92213638510926       -19.921047315019116      -19.919967409477437      -19.918896191902387      -19.917833199109584      -19.91677798044452       -19.91573009695582       -19.914689120605512      -19.91365463351281
1.0960960960960962       -19.931915979132746      -19.93048120103384       -19.929070630094394      -19.927683192159527      -19.92631786338601       -19.924973666996046      -19.92364967026684       -19.922344981735346      -19.921058748600046      -19.919790154303097      -19.91853841627789       -19.91730278384821       -19.91608253626677       -19.914876980881573      -19.913685451419997      -19.912507306381094      -19.911341927527452      -19.910188718468767      -19.909047103329925      -19.907916525496773      -19.906796446433685      -19.90568634456698       -19.904585714229096      -19.903494064658627      -19.902410919051555      -19.90133581365945       -19.900268296930623      -19.899207928690213      -19.898154279355683      -19.897106929183874
1.1001001001001          -19.91572653059341       -19.914284208408805      -19.912865827519614      -19.911470324733163      -19.91009668615905       -19.90874394403893       -19.90741117380475       -19.906097491345744      -19.904802050466582      -19.9035240405206        -19.90226268420364       -19.90101723549516       -19.89978697773474       -19.89857122182287       -19.89736930453619       -19.896180586947857      -19.895004452944846      -19.893840307834363      -19.892687577032405      -19.891545704827912      -19.890414153216675      -19.889292400799114      -19.888179941737146      -19.887076284765115      -19.885980952250268      -19.884893479298647      -19.88381341290218       -19.882740311123232      -19.881673742312692      -19.880613284357903
1.1041041041041044       -19.8996009186084        -19.898150525128276      -19.896723831762223      -19.89531978443195       -19.893937377487244      -19.892575650599714      -19.89123368587886       -19.889910605191442      -19.88860556766713       -19.887317767374675      -19.88604643115474       -19.88479081659619       -19.8835502101446        -19.882323925331818      -19.881111301117286      -19.879911700331867      -19.87872450821627       -19.877549131046358      -19.87638499483865       -19.875231544129456      -19.874088240821983      -19.872954563095703      -19.871830004373138      -19.870714072339144      -19.869606288008313      -19.86850618483614       -19.867413307869963      -19.866327212935644      -19.86524746585612       -19.864173641697832
1.1081081081081081       -19.883538675540233      -19.882079745629476      -19.88064429398507       -19.87923127414184       -19.877839687295783      -19.876468579252172      -19.87511703759091       -19.873784189030445      -19.872469196973825      -19.871171259221438      -19.869889605836903      -19.868623497153298      -19.867372221908706      -19.866135095500166      -19.86491145834694       -19.863700674354124      -19.862502129468695      -19.86131523032062       -19.860139402942266      -19.858974091559872      -19.857818757451327      -19.856672877864753      -19.855535944992972      -19.8544074649991        -19.853286957088766      -19.85217395262471       -19.85106799427956       -19.849968635222737      -19.848875438337426      -19.847787975463326
1.112112112112112        -19.867539478664995      -19.86607160096068       -19.864626994400894      -19.863204618913404      -19.861803481405364      -19.860422632758215      -19.859061165035417      -19.85771820888477       -19.85639293111915       -19.8550845324607        -19.853792245435077      -19.8525153324034        -19.851253083720792      -19.850004816011293      -19.84876987054969       -19.847547611741902      -19.846337425695875      -19.8451387188759        -19.843950916833627      -19.84277346300956       -19.841605817599522      -19.84044745648045       -19.839297870190734      -19.83815656296037       -19.837023051786336      -19.83589686554881       -19.83477754416421       -19.83366463777051       -19.832557705940697      -19.83145631691969
1.1161161161161162       -19.851603162968342      -19.850125974008527      -19.848671859706275      -19.847239785395082      -19.845828762773216      -19.84443784693947       -19.84306613363779       -19.841712756692996      -19.8403768856217        -19.839057723403783      -19.837754504401314      -19.83646649241263       -19.835192978850973      -19.833933281037172      -19.832686740597655      -19.831452721959007      -19.830230610931526      -19.829019813374693      -19.827819753937742      -19.826629874869536      -19.82544963489187       -19.824278508131005      -19.823115983102305      -19.82196156174348       -19.820814758491597      -19.81967509939964       -19.818542121288075      -19.817415370927012      -19.816294404244285      -19.81517878555422
1.12012012012012         -19.835729741741513      -19.834242922338568      -19.83277898798076       -19.831336908617782      -19.82991570000211       -19.82851442076066       -19.82713216967195       -19.82576808313125       -19.8244213327881        -19.82309112334176       -19.82177669048173       -19.82047729896134       -19.81919224079378       -19.817920833560457      -19.81666241882282       -19.81541636062935       -19.81418204410985       -19.812958874150375      -19.811746274141907      -19.810543684797004      -19.809350563028744      -19.80816638088651       -19.806990624543822      -19.805822793333313      -19.804662398824245      -19.803508963937958      -19.80236202209669       -19.801221116400892      -19.800085798829922      -19.798955629460295
1.1241241241241244       -19.81991943705317       -19.818422710938723      -19.816948683538406      -19.815496328801586      -19.814064665958515      -19.812652756624086      -19.811259702104074      -19.809884640886565      -19.80852674630316       -19.8071852243458        -19.805859311626584      -19.80454827346856       -19.803251402117258      -19.801968015062798      -19.800697453463975      -19.799439080665955      -19.79819228080403       -19.79695645748658       -19.79573103255064       -19.794515444884237      -19.793309149309724      -19.79211161552295       -19.790922327083067      -19.78974078044837       -19.7885664840531        -19.787398957420695      -19.786237730308407      -19.785082341878127      -19.78393233988754       -19.78278727989479
1.1281281281281281       -19.804172723303367      -19.802665858320307      -19.801181505422527      -19.799718642099073      -19.798276290627296      -19.79685351520581       -19.79544941928707       -19.794063143092636      -19.792693861295845      -19.79134078085802       -19.79000313900562       -19.788680201336653      -19.787371260046122      -19.786075632260484      -19.78479265847269       -19.7835217010694        -19.782262142943118      -19.781013386182167      -19.77977485083221       -19.778545973723325      -19.777326207357014      -19.77611501884776       -19.774911888914154      -19.773716310914562      -19.772527789922382      -19.771345841835856      -19.77016999251714       -19.768999776954665      -19.767834738442144      -19.766674427765864
1.132132132132132        -19.78849038879586       -19.786973201243775      -19.785478335130428      -19.784004771171915      -19.782551534399975      -19.781117691321853      -19.77970234727726       -19.778304643975538      -19.776923757198183      -19.775558894652864      -19.774209293966585      -19.772874220806486      -19.77155296711796       -19.770244849470572      -19.76894920750299       -19.767665402459002      -19.76639281580709       -19.76513084793681       -19.763878916925563      -19.76263645736977       -19.761402919274918      -19.76017776699897       -19.758960478244042      -19.757750543091237      -19.75654746307339       -19.755350750280307      -19.75415992649056       -19.75297452232312       -19.751794076400643      -19.75061813451401
1.1361361361361364       -19.77287362300806       -19.771345986237986      -19.769840472216348      -19.76835606471914       -19.76689179137676       -19.76544672085921       -19.764019960255833      -19.762610652633256      -19.7612179747565        -19.7598411349598        -19.75847937115484       -19.757131948965053      -19.755798159975825      -19.754477320091006      -19.75316876798729       -19.75187186365843       -19.750585987041788      -19.749310536720753      -19.74804492869627       -19.74678859522182       -19.745540983696074      -19.744301555607734      -19.743069785527258      -19.741845160140215      -19.740627177316483      -19.73941534520958       -19.738209181379055      -19.737008211928067      -19.735811970645823      -19.734619998141223
1.14014014014014         -19.757324141753628      -19.7557860008872        -19.754269771518217      -19.752774440466816      -19.751299037950073      -19.74984263479147       -19.748404339822635      -19.746983297461135      -19.745578685449615      -19.74418971274281       -19.74281561753036       -19.741455665384205      -19.740109147520457      -19.73877537916634       -19.737453698023725      -19.7361434628213        -19.734844051948155      -19.733554862161885      -19.73227530736498       -19.73100481744338       -19.729742837161677      -19.728488825109064      -19.727242252690775      -19.72600260315916       -19.724769370678313      -19.723542059415415      -19.722320182650698      -19.721103261895905      -19.71989082600772       -19.718682410277587
1.1441441441441444       -19.741844370153856      -19.740295766115324      -19.738768844547625      -19.737262595466383      -19.735776051823795      -19.73430828674189       -19.732858410936032      -19.731425570312286      -19.730008943724435      -19.728607740877088      -19.727221200363104      -19.725848587824068      -19.72448919422401       -19.72314233422686       -19.721807344669347      -19.720483583121474      -19.719170426527214      -19.71786726991874       -19.716573525197852      -19.715288619978374      -19.714011996483936      -19.712743110495072      -19.711481430339866      -19.71022643592195       -19.708977617778757      -19.707734476161978      -19.70649652012996       -19.705263266638717      -19.70403423961287       -19.702808968969418