% Model:              gold_v2.mph
% Version:            COMSOL 5.4.0.295
% Date:               Aug 24 2022, 16:21
% Table:              Tabella 3 - ADMITTANCE (abs(es.Y11))
% freq (GHz)             d=0.05, 10*log10(abs(es.Y11))d=0.058621, 10*log10(abs(es.Y11))d=0.067241, 10*log10(abs(es.Y11))d=0.075862, 10*log10(abs(es.Y11))d=0.084483, 10*log10(abs(es.Y11))d=0.093103, 10*log10(abs(es.Y11))d=0.10172, 10*log10(abs(es.Y11))d=0.11034, 10*log10(abs(es.Y11))d=0.11897, 10*log10(abs(es.Y11))d=0.12759, 10*log10(abs(es.Y11))d=0.13621, 10*log10(abs(es.Y11))d=0.14483, 10*log10(abs(es.Y11))d=0.15345, 10*log10(abs(es.Y11))d=0.16207, 10*log10(abs(es.Y11))d=0.17069, 10*log10(abs(es.Y11))d=0.17931, 10*log10(abs(es.Y11))d=0.18793, 10*log10(abs(es.Y11))d=0.19655, 10*log10(abs(es.Y11))d=0.20517, 10*log10(abs(es.Y11))d=0.21379, 10*log10(abs(es.Y11))d=0.22241, 10*log10(abs(es.Y11))d=0.23103, 10*log10(abs(es.Y11))d=0.23966, 10*log10(abs(es.Y11))d=0.24828, 10*log10(abs(es.Y11))d=0.2569, 10*log10(abs(es.Y11))d=0.26552, 10*log10(abs(es.Y11))d=0.27414, 10*log10(abs(es.Y11))d=0.28276, 10*log10(abs(es.Y11))d=0.29138, 10*log10(abs(es.Y11))d=0.3, 10*log10(abs(es.Y11))
1                        -20.32643860368463       -20.32478454094573       -20.32317305539703       -20.32159543551738       -20.3200366856607        -20.318458724612853      -20.316695139103167      -20.31461212850518       -20.315590191037707      -20.31386407169449       -20.31246767726618       -20.31117990816531       -20.309956066987812      -20.30878043753601       -20.307645397834033      -20.306546296951957      -20.305479794504695      -20.30444322374063       -20.30343431768147       -20.30245108012179       -20.30149171909571       -20.300554608773346      -20.299638264888706      -20.298741326949607      -20.29786254411463       -20.29700076328446       -20.296154918719424      -20.29532402284397       -20.29450715805376       -20.293703469407266
1.004004004004004        -20.307650486394312      -20.306052381515144      -20.304485182245585      -20.30293463799181       -20.30137597044864       -20.299766311143756      -20.29865766818348       -20.29820660198326       -20.296656683173843      -20.295231495123485      -20.293897947917692      -20.29262466835553       -20.291398114540616      -20.29021144753137       -20.28906051071891       -20.287942344143733      -20.286854584875364      -20.285795206693315      -20.284762400152026      -20.28375451395882       -20.282770024083074      -20.281807515692087      -20.280865671130623      -20.279943260829754      -20.279039135722854      -20.278152220531812      -20.277281507646265      -20.27642605147916       -20.27558496324842       -20.27475740615921
1.008008008008008        -20.28886656479841       -20.287401070470406      -20.2859341159451        -20.28445711993251       -20.283004077281944      -20.281849271822473      -20.280887438050286      -20.27953450790396       -20.278126315651036      -20.276759459443344      -20.275437667622732      -20.27415693570664       -20.272913946001783      -20.27170619208206       -20.27053160848899       -20.269388354727027      -20.2682747177762        -20.267189073488577      -20.266129873570613      -20.265095642363082      -20.264084976498566      -20.26309654467179       -20.262129086613918      -20.26118141113917       -20.260252393420007      -20.259340971720437      -20.258446143804626      -20.257566963197053      -20.256702535425735      -20.255852014340153
1.012012012012012        -20.27108541719828       -20.269746471623492      -20.26834243359815       -20.266940698437562      -20.26564966356267       -20.26438009420461       -20.262974497143933      -20.261517428919696      -20.260077123418387      -20.258672527997067      -20.25730740236932       -20.25598163911777       -20.2546940253865        -20.25344296648813       -20.25222672171815       -20.251043506327573      -20.2498915466056        -20.248769112807224      -20.247674538969274      -20.2466062341044        -20.245562687558298      -20.244542470439608      -20.243544234468153      -20.242566709188488      -20.241608698207667      -20.24066907490868       -20.239746777943086      -20.238840806702385      -20.23795021689491       -20.237074116305322
1.016016016016016        -20.255269814470346      -20.253664512739178      -20.25203950894882       -20.250446152420952      -20.24885096059024       -20.24722490527005       -20.245600006356188      -20.244008331364633      -20.24246327103487       -20.240968103039265      -20.23952218102814       -20.23812344402609       -20.236769357352845      -20.235457280597014      -20.234184620850463      -20.23294889862706       -20.231747774854178      -20.23057905911          -20.229440708378817      -20.22833082096874       -20.227247628073787      -20.22618948436125       -20.225154858365816      -20.224142323128635      -20.223150547317104      -20.222178286940192      -20.221224377701134      -20.220287727986985      -20.219367312469064      -20.218462166276005
1.02002002002002         -20.240137522180074      -20.238037723689978      -20.23601056514234       -20.234039784016108      -20.23211904046887       -20.23025770845644       -20.2284644399672        -20.22674145462367       -20.22508667506456       -20.223496185543688      -20.221965545428855      -20.22049035594644       -20.219066476496042      -20.217690091435824      -20.21635771542936       -20.215066174715723      -20.21381258014526       -20.212594298702207      -20.211408926297448      -20.21025426288074       -20.20912829015021       -20.20802915179847       -20.20695513609604       -20.205904660566333      -20.204876258503575      -20.203868567100614      -20.20288031697674       -20.201910322920327      -20.200957475684973      -20.200020734699045
1.024024024024024        -20.2243148477654        -20.221876332258837      -20.219561939982135      -20.217359082311535      -20.215261516918183      -20.213263794828084      -20.21135937890469       -20.209541043571242      -20.20780158172396       -20.2061342271964        -20.20453281890811       -20.202991823656582      -20.201506296903617      -20.200071822210575      -20.198684447638158      -20.19734062648056       -20.196037164738012      -20.194771175609468      -20.19354004045919       -20.192341375451743      -20.191173003031277      -20.19003292749367       -20.18891931400094       -20.187830470487746      -20.186764832000698      -20.1857209470886        -20.184697465926916      -20.18369312991339       -20.18270676251575       -20.181737261188708
1.028028028028028        -20.20777594459532       -20.205190347635842      -20.2027537531169        -20.200451338098336      -20.19827044364861       -20.196199624779496      -20.19422847702704       -20.192347646105876      -20.19054880866208       -20.18882460063892       -20.187168516936286      -20.185574804470985      -20.18403836106479       -20.18255464534905       -20.181119598885118      -20.179729579848463      -20.178381306925996      -20.177071811931494      -20.17579839973703       -20.174558614295798      -20.173350209723196      -20.172171125579432      -20.171019465649547      -20.16989347964379       -20.168791547345464      -20.167712164817992      -20.16665393235149       -20.16561554388465       -20.164595777682468      -20.16359348808694
1.032032032032032        -20.190860342680594      -20.188234638589307      -20.185759424219427      -20.183418965679095      -20.181199595370373      -20.17908936109931       -20.17707779485356       -20.175155721167496      -20.17331508433898       -20.17154879282151       -20.1698505821679        -20.168214896738135      -20.166636788990292      -20.165111834397482      -20.16363605979918       -20.16220588307887       -20.160818062287404      -20.159469652603825      -20.158157969788725      -20.156880559020816      -20.155635168206672      -20.154419725019338      -20.153232317056798      -20.152071174620957      -20.15093465570675       -20.149821232862465      -20.148729481640796      -20.147658070406894      -20.14660575130828       -20.145571352242527
1.0360360360360361       -20.173798662271366      -20.171172972045333      -20.16869027156879       -20.16633605950179       -20.164097748377742      -20.161964366664144      -20.15992631522986       -20.15797516313978       -20.156103475395184      -20.15430466779302       -20.15257288492229       -20.150902897744434      -20.149290017596435      -20.147730023868213      -20.146219103018424      -20.14475379697627       -20.143330959315072      -20.141947717872277      -20.140601442730585      -20.139289718672373      -20.13801032138044       -20.136761196788157      -20.13554044308801       -20.134346294992497      -20.133177109910964      -20.132031355761974      -20.13090760018677       -20.129804500967026      -20.12872079748067       -20.127655303055164
1.04004004004004         -20.15670262231737       -20.154087693988153      -20.151606872969513      -20.149247335202837      -20.146997881640626      -20.144848688026084      -20.142791097813905      -20.140817450022503      -20.138920935752527      -20.13709547832246       -20.135335632870405      -20.13363650199794       -20.131993664639904      -20.130403115851717      -20.128861215628426      -20.127364645216055      -20.12591036965876       -20.124495605555254      -20.123117793183255      -20.121774572301362      -20.12046376105885       -20.11918333754234       -20.117931423568074      -20.116706270393706      -20.115506246076222      -20.114329824246504      -20.113175574106737      -20.112042151486676      -20.11092829081944       -20.109832797918404
1.044044044044044        -20.13962342320005       -20.13701948055084       -20.13454172629046       -20.13217881320777       -20.129920748679883      -20.127758693717887      -20.12568479620257       -20.123692051971346      -20.121774188659813      -20.119925568179365      -20.11814110449713       -20.116416194018075      -20.114746656380337      -20.11312868388638       -20.1115587981239        -20.110033812596622      -20.108550800398834      -20.10710706614048       -20.10570012146818       -20.104327663640365      -20.102987556706154      -20.10167781491166       -20.10039658801885       -20.099142148271554      -20.097912878785024      -20.096707263169545      -20.09552387622748       -20.09436137558779       -20.09321849416289       -20.092094033331833
1.048048048048048        -20.12258509612291       -20.119989051766257      -20.11751266556763       -20.11514575623763       -20.112879285389134      -20.11070519636118       -20.10861627960584       -20.1066060597542        -20.104668700437646      -20.102798923705905      -20.100991941493334      -20.099243397071767      -20.097549314816348      -20.09590605692084       -20.094310285947437      -20.092758932295286      -20.09124916583223       -20.089778371064305      -20.088344125322543      -20.086944179532225      -20.085576441200182      -20.084238959313012      -20.082929910887124      -20.08164758895117       -20.080390391775097      -20.079156813188582      -20.077945433857096      -20.07675491340644       -20.075583983308594      -20.074431440463417
1.052052052052052        -20.105599316502712      -20.10300734905624       -20.100529773761096      -20.098157303719894      -20.095881637496042      -20.093695327260157      -20.091591667753374      -20.089564602335162      -20.08760864311535       -20.08571880274975       -20.083890535938785      -20.082119689034283      -20.080402456451907      -20.078735342819773      -20.077115129981962      -20.0755388481269        -20.07400375043302       -20.072507290724563      -20.07104710371121       -20.06962098745296       -20.068226887746814      -20.066862884178008      -20.065527177617838      -20.064218078983398      -20.062933999104477      -20.061673439570047      -20.06043498445407       -20.059217292848906      -20.058019092167967      -20.05683917221987
1.0560560560560561       -20.088671883527972      -20.086080314723684      -20.083598902089605      -20.081219044198736      -20.078933008822233      -20.076733822175854      -20.07461517487257       -20.072571341689425      -20.070597112812955      -20.06868773466692       -20.066838858775895      -20.06504649739696       -20.063306984875588      -20.06161694386162       -20.05997325566685       -20.058373034163846      -20.05681360272201       -20.055292473756023      -20.053807330526674      -20.05235601088831       -20.050936492722336      -20.049546880834693      -20.04818539512932       -20.046850359900816      -20.04554019412055       -20.04425340262475       -20.042988568154417      -20.041744344252596      -20.04051944910246       -20.039312660502784
1.06006006006006         -20.071805666645997      -20.069211220156546      -20.066723504380416      -20.064334448307374      -20.06203676342122       -20.059823848182422      -20.05768970630602       -20.055628876536367      -20.05363637204862       -20.051707627947515      -20.049838455605506      -20.04802500280114       -20.046263718794478      -20.044551323619064      -20.04288478098594       -20.04126127429016       -20.039678185287556      -20.038133075073837      -20.036623667050655      -20.035147831607745      -20.03370357228768       -20.032289013233374      -20.030902387749933      -20.02954202784668       -20.028206354666743      -20.02689386977029       -20.025603147328084      -20.024332827427045      -20.023081610925768      -20.02184825667339
1.064064064064064        -20.055002012957996      -20.052401851126636      -20.049905626984483      -20.047505685481582      -20.045195088335465      -20.04296752968022       -20.040817263431737      -20.03873904048737       -20.03672805421698       -20.034779892973276      -20.032890498567436      -20.031056129831747      -20.029273330534178      -20.02753890102554       -20.025849873095325      -20.024203487589315      -20.02259717440578       -20.02102853453906       -20.01949532388169       -20.017995438531685      -20.016526901382022      -20.01508784979716       -20.013676524213253      -20.012291257540824      -20.010930465318904      -20.009592636695327      -20.008276326542273      -20.00698014945131       -20.005702777140165      -20.004442942166122
1.0680680680680683       -20.038261452544628      -20.035653138449845      -20.03314646351829       -20.030734103603667      -20.028409400577868      -20.026166286322283      -20.02399921692468       -20.021903115495007      -20.019873322290216      -20.01790555105973       -20.015995850703288      -20.014140571478592      -20.012336335115137      -20.01058000828715       -20.008868678977795      -20.00719963533033       -20.005570346633455      -20.003978446128773      -20.00242171535982       -20.000898069806112      -19.999405545565114      -19.99794228686281       -19.99650653420152       -19.995096613009405      -19.993710922784867      -19.992347927021775      -19.991006144846818      -19.989684146673714      -19.988380558969624      -19.987094088502477
1.072072072072072        -20.02158406802279       -20.018965508000363      -20.0164466777044        -20.01402051995369       -20.0116806036699        -20.009421054228863      -20.00723649289668       -20.005121983977592      -20.003072988532104      -20.001085323711077      -19.99915512690349       -19.997278824019663      -19.995453101332398      -19.993674880380503      -19.991941295504777      -19.990249673638655      -19.98859751601476       -19.9869824814767        -19.985402371101554      -19.98385511384407       -19.982338752909957      -19.98085143255736       -19.979391385030485      -19.977956917390284      -19.97654639823921       -19.97515824502184       -19.973790914401402      -19.97244290272676       -19.971112774111845      -19.9697992556414
1.0760760760760761       -20.00496969637544       -20.002339082983738      -19.99980659837549       -19.997365403641652      -19.995009254021074      -19.992732434197404      -19.99052970183176       -19.98839623811518       -19.98632760432393       -19.984319703522726      -19.98236874669226       -19.980471222664736      -19.978623871338247      -19.976823659709897      -19.97506776032204       -19.973353531755784      -19.971678500831164      -19.97004034618356       -19.96843688287823       -19.966866047695092      -19.965325884662462      -19.963814530340343      -19.962330198273946      -19.960871162039574      -19.959435736667253      -19.958022259792024      -19.956629079112574      -19.955254568419484      -19.95389723753735       -19.95255610209067
1.08008008008008         -19.98841804374258       -19.985773805604975      -19.983226341736938      -19.98076899393579       -19.978395672134873      -19.976100793619075      -19.973879229819307      -19.971726259587786      -19.969637528031424      -19.967609010122942      -19.96563697842547       -19.963717974360375      -19.961848782523617      -19.960026407614176      -19.95824805358092       -19.956511104620386      -19.954813107665075      -19.953151755985633      -19.95152487348104       -19.949930399135663      -19.94836637096029       -19.94683090848334       -19.94532219251807       -19.943838440620468      -19.942377876982068      -19.940938698919663      -19.939519057678442      -19.93811713057894       -19.936731561344125      -19.935363049931954
1.0840840840840842       -19.97192875360424       -19.9692695134007        -19.966705891078835      -19.964231379808844      -19.961840019390618      -19.95952633862886       -19.957285304768796      -19.955112278984704      -19.95300297707064       -19.950953434610263      -19.948959976006464      -19.947019186834726      -19.945127889049363      -19.943283118619558      -19.941482105202397      -19.93972225346904       -19.938001125682053      -19.936316425064394      -19.934665979380874      -19.933047723933555      -19.93145968278593       -19.929899946371194      -19.928366642573167      -19.92685789689388       -19.925371776511717      -19.923906219691034      -19.922459000998707      -19.92102803894008       -19.919613455505168      -19.91822515457671
1.088088088088088        -19.955501449449685      -19.952825989487252      -19.95024515107285       -19.94775255559753       -19.9453423530398        -19.943009166929848      -19.94074804595766       -19.938554421287435      -19.936424068784085      -19.934353075473         -19.932337809647994      -19.930374894116145      -19.928461182123876      -19.92659373554536       -19.92476980492938       -19.92298681098776       -19.921242327053182      -19.919534061911925      -19.917859842177762      -19.91621759292365       -19.914605314443964      -19.91302105142521       -19.91146284780134       -19.90992867521425       -19.90841631584315       -19.906923188684928      -19.90544627759084       -19.903983687159325      -19.90254683153154       -19.901183741088445
1.092092092092092        -19.939135763396205      -19.936442997658578      -19.933843986751704      -19.931332461849138      -19.928902667366447      -19.92654930807926       -19.9242675025439        -19.922052741939158      -19.91990085357899       -19.917807968452074      -19.91577049222893       -19.913785079242498      -19.91184860899401       -19.909958164759747      -19.908111013871267      -19.906304589197433      -19.904536471247155      -19.90280437008694       -19.90110610582565       -19.89943958554773       -19.89780277281377       -19.896193642144283      -19.894610102831976      -19.893049858539385      -19.891510132725962      -19.88998716560353       -19.88847607516114       -19.886982075822466      -19.88559367798484       -19.88427124958364
1.0960960960960962       -19.92283135728267       -19.920120308832665      -19.91750225338925       -19.914971017122106      -19.91252092621953       -19.910146755823355      -19.907843684982506      -19.90560725678854       -19.90343334297822       -19.901318112386154      -19.89925800270701       -19.89724969508399       -19.895290091074894      -19.89337629155646       -19.89150557709953       -19.889675389260734      -19.88788331204564       -19.886127052411446      -19.884404417893148      -19.882713287798584      -19.88105157081803       -19.87941713345058       -19.87780766227168       -19.876220364346185      -19.87465124048075       -19.87309329500531       -19.87153706447671       -19.870099927877554      -19.868798398783582      -19.86733044238357
1.1001001001001          -19.90658794018752       -19.903857722945812      -19.901219821337598      -19.89866814461873       -19.89619709052486       -19.89380149575904       -19.891476592258137      -19.88921796843736       -19.88702153472635       -19.8848834928005        -19.88280030798043       -19.88076868432025       -19.87878554192818       -19.876847996052895      -19.874953337408037      -19.873099013059175      -19.871282606884165      -19.869501817973788      -19.867754433975044      -19.86603829334109       -19.864351223168914      -19.86269092013336       -19.861054685144744      -19.85943872570762       -19.857835917669558      -19.856227071369844      -19.854638733383773      -19.853466237361868      -19.851900560677596      -19.85038644681658
1.1041041041041044       -19.89040528499155       -19.887655089112368      -19.884996598694904      -19.882423796477504      -19.87993114348503       -19.8775135308604        -19.875166237268687      -19.872884891102903      -19.870665436827395      -19.868504104878152      -19.866397384600873      -19.86434199974509       -19.86233488604119       -19.860373170351522      -19.858454150780844      -19.856575276893764      -19.85473412868807       -19.852928391915718      -19.851155824991807      -19.849414207123097      -19.847701242571013      -19.84601435222116       -19.844350129763942      -19.842702550855346      -19.841054487983495      -19.839295060318463      -19.838327532787858      -19.836585724153466      -19.83501502588941       -19.83348654484724
1.1081081081081081       -19.87428324597629       -19.87151232623981       -19.86883255409144       -19.866237978033077      -19.863723115739255      -19.86128290706548       -19.8589126724496        -19.856608075959457      -19.85436509234078       -19.852179977495318      -19.85004924187291       -19.847969626286734      -19.8459380796505        -19.84395173806792       -19.842007904534185      -19.84010402814134       -19.83823768089524       -19.836406528526883      -19.834608287634637      -19.832840651128695      -19.831101134096766      -19.82938669156761       -19.827692535441777      -19.826007036868823      -19.82426893751253       -19.823425330746364      -19.821385075292397      -19.819758367026964      -19.81818411006689       -19.816636494335032
1.112112112112112        -19.85822177925753       -19.85542944609159       -19.85272774170303       -19.850110774213412      -19.84757311266929       -19.84510974109297       -19.84271601776761       -19.840387639029544      -19.838120606935686      -19.835911200242528      -19.833755948177586      -19.8316516064954        -19.82959513527539       -19.827583677804213      -19.825614539624144      -19.82368516626555       -19.82179311695451       -19.819936028769977      -19.818111558737954      -19.81631727211052       -19.81455038423944       -19.81280703112464       -19.81107957690251       -19.809341448305723      -19.807519728030726      -19.80628477821966       -19.804616765612547      -19.802997413950806      -19.80140580249237       -19.79983484830821
1.1161161161161162       -19.842220967990208      -19.83940658092774       -19.836682330760414      -19.8340423804358        -19.83148134627178       -19.828994252941175      -19.82657649354797       -19.82422379408463       -19.82193218164795       -19.819697955852227      -19.8175176629117        -19.815388071857228      -19.81330615228456       -19.81126905285355       -19.80927407936321       -19.807318670371203      -19.805400366399912      -19.803516764149528      -19.80166543500009       -19.799843751201564      -19.798048439317327      -19.796274155539116      -19.794507507601605      -19.79270619182949       -19.791232069393757      -19.789588073112583      -19.787927426636138      -19.786291541435627      -19.784676617151383      -19.78307978068576
1.12012012012012         -19.826281054735922      -19.82344401832927       -19.820696642330514      -19.818033140912966      -19.81544817461537       -19.812936806171976      -19.810494461304412      -19.80811689377783       -19.805800154104674      -19.8035405613327        -19.801334677372427      -19.79917928328946       -19.79707135687409       -19.795008050532275      -19.79298666795262       -19.791004636697746      -19.789059470826615      -19.78714871001173       -19.785269800386686      -19.783419815407083      -19.781594668012346      -19.779786396675416      -19.777974173205266      -19.776245815096733      -19.774664488722706      -19.7729744447031        -19.771295133497862      -19.769635474875326      -19.76799426410943       -19.76636984202719
1.1241241241241244       -19.810402484227684      -19.807542246708557      -19.804771197103403      -19.802083598304613      -19.79947415299462       -19.796937960249302      -19.79447047698343       -19.792067483549957      -19.78972505287921       -19.787439522586194      -19.785207469475882      -19.78302568581451       -19.780891156559935      -19.77880103634476       -19.776752624124576      -19.77474333139956       -19.77277063507107       -19.77083199324803       -19.768924665039428      -19.767045251904513      -19.76518831943898       -19.7633420910172        -19.76150256330511       -19.759834974951332      -19.758137200426486      -19.756417894955543      -19.754713264153565      -19.75302664529149       -19.751357302968813      -19.74970397736701
1.1281281281281281       -19.79458596117371       -19.791702016520624      -19.788906779540405      -19.786194560383915      -19.7835601027435        -19.780998541170906      -19.778505363124584      -19.77607637506472       -19.773707671980134      -19.771395609760173      -19.769136779803844      -19.76692798515298       -19.764766217172884      -19.762648631212652      -19.760572518352436      -19.758535267240916      -19.75653430222753       -19.754566962571417      -19.75263022224172       -19.750719931075555      -19.748828581227922      -19.746943235840494      -19.745126544674353      -19.743412289411875      -19.74166070175048       -19.739912015379808      -19.738179238765078      -19.736463771606516      -19.734764913240323      -19.733081539525394
1.132132132132132        -19.77883253004527       -19.775924424686096      -19.773104526432096      -19.770367192282407      -19.76770720676816       -19.76511973993625       -19.762600309954973      -19.760144749662853      -19.757749176437443      -19.755409964773527      -19.75312372090821       -19.7508872586646        -19.748697575293843      -19.746551825218123      -19.74444728756735       -19.742381318542336      -19.740351266961344      -19.738354295215025      -19.7363869356122        -19.73444386448427       -19.73251516855242       -19.730602706711963      -19.728800952863892      -19.727023604776203      -19.725233841412464      -19.72345478748084       -19.72169216259298       -19.71994645147566       -19.71821689467703       -19.716502409247255
1.1361361361361364       -19.763143687606025      -19.760211033902717      -19.757366052437145      -19.754603147761046      -19.751917146113062      -19.749303254027797      -19.74675702146197       -19.744274308757525      -19.74185125680475       -19.73948425975873       -19.73716993956782       -19.734905121320317      -19.732686807834938      -19.730512150607534      -19.728378411144366      -19.726282899014024      -19.724222852180024      -19.722195164499357      -19.720195681462307      -19.718217390530057      -19.71625033410939       -19.714331901774706      -19.712507081721867      -19.710680790543677      -19.70885651507112       -19.707046103625046      -19.705252343515166      -19.703475214098187      -19.701713886339544      -19.6999672839384
1.14014014014014         -19.747521545413765      -19.744564045642672      -19.741693632955087      -19.738904761414638      -19.736192301031643      -19.73355149696243       -19.730977933120716      -19.728467499514636      -19.726016362649194      -19.72362093829358       -19.721277865758125      -19.71898398244531       -19.716736296575217      -19.714531953998414      -19.712368190221397      -19.71024224644058       -19.708151194221458      -19.70609151351899       -19.704058001982204      -19.702041741150538      -19.700041422528546      -19.698121207435918      -19.69625517978041       -19.694388198765502      -19.692530163891266      -19.690687473550025      -19.688861506560006      -19.68705193820258       -19.68525788085538       -19.68347825457999
1.1441441441441444       -19.731969070885         -19.728986558220203      -19.72609047853671       -19.723275338877315      -19.720536056558235      -19.7178679189259        -19.71526654741759       -19.712727865225503      -19.710248067867326      -19.70782359588258       -19.70545110863102       -19.70312745759843       -19.700849656314155      -19.69861484093703       -19.69642020802792       -19.69426289610658       -19.692139721640636      -19.690046523295827      -19.687976598646706      -19.68592041417917       -19.6838979111892        -19.681963078944808      -19.680054488332754      -19.678150209954303      -19.67625836021154       -19.67438261475576       -19.672523593969775      -19.67068078404698       -19.668853256401626      -19.667039929267006