% Model:              molybdenum_v2.mph
% Version:            COMSOL 5.4.0.295
% Date:               Aug 24 2022, 16:20
% Table:              Tabella 3 - ADMITTANCE (abs(es.Y11))
% freq (GHz)             d=0.05, 10*log10(abs(es.Y11))d=0.058621, 10*log10(abs(es.Y11))d=0.067241, 10*log10(abs(es.Y11))d=0.075862, 10*log10(abs(es.Y11))d=0.084483, 10*log10(abs(es.Y11))d=0.093103, 10*log10(abs(es.Y11))d=0.10172, 10*log10(abs(es.Y11))d=0.11034, 10*log10(abs(es.Y11))d=0.11897, 10*log10(abs(es.Y11))d=0.12759, 10*log10(abs(es.Y11))d=0.13621, 10*log10(abs(es.Y11))d=0.14483, 10*log10(abs(es.Y11))d=0.15345, 10*log10(abs(es.Y11))d=0.16207, 10*log10(abs(es.Y11))d=0.17069, 10*log10(abs(es.Y11))d=0.17931, 10*log10(abs(es.Y11))d=0.18793, 10*log10(abs(es.Y11))d=0.19655, 10*log10(abs(es.Y11))d=0.20517, 10*log10(abs(es.Y11))d=0.21379, 10*log10(abs(es.Y11))d=0.22241, 10*log10(abs(es.Y11))d=0.23103, 10*log10(abs(es.Y11))d=0.23966, 10*log10(abs(es.Y11))d=0.24828, 10*log10(abs(es.Y11))d=0.2569, 10*log10(abs(es.Y11))d=0.26552, 10*log10(abs(es.Y11))d=0.27414, 10*log10(abs(es.Y11))d=0.28276, 10*log10(abs(es.Y11))d=0.29138, 10*log10(abs(es.Y11))d=0.3, 10*log10(abs(es.Y11))
1                        -20.33123357380418       -20.330272263295093      -20.329328806992994      -20.32840224833018       -20.327491665434373      -20.32659616671884       -20.32571488374409       -20.324846959725456      -20.323991531192664      -20.323147698799726      -20.32231448052665       -20.321490735201856      -20.320675033456183      -20.319865429777412      -20.319059034634563      -20.31825114581922       -20.317433297054293      -20.316588244767626      -20.315674455916614      -20.31456341508523       -20.312764829342875      -20.3170368727387        -20.314906092437873      -20.31371783228142       -20.31283110338495       -20.31205611783463       -20.311337561177474      -20.31065381182231       -20.30999466444729       -20.309354622523465
1.004004004004004        -20.312264257675604      -20.31133917090102       -20.31043193189319       -20.309541144320033      -20.3086654186921        -20.307803377131727      -20.306953654141235      -20.3061148893384        -20.305285706421916      -20.30446467004563       -20.303650208180617      -20.302840481294446      -20.302033172739428      -20.30122518244243       -20.30041232183503       -20.299589874115618      -20.29875957195523       -20.297975763575504      -20.297525822798196      -20.29754305376603       -20.297108306674204      -20.296352818104534      -20.295571507150786      -20.294818547845082      -20.29409470642971       -20.29339474016565       -20.292714271065847      -20.292050229023836      -20.291400491706852      -20.290763555437206
1.008008008008008        -20.293008229306423      -20.29218008622847       -20.291369090647713      -20.29057195204775       -20.28978545541854       -20.28900657599276       -20.28823257766053       -20.287461085611206      -20.286690134591872      -20.285918217392293      -20.285144411927586      -20.28436880286414       -20.28359377768801       -20.28282764439297       -20.2820930485576        -20.281436482552788      -20.28089699638217       -20.280402848800993      -20.27982484366692       -20.27915114763827       -20.27843320296354       -20.277706123713394      -20.276984581529923      -20.276273566359908      -20.27557440016964       -20.27488713298475       -20.274211414369496      -20.273546797811687      -20.27289284064217       -20.272249131528394
1.012012012012012        -20.274324115086092      -20.273735259792968      -20.273135129105626      -20.272516696153893      -20.271875342000236      -20.271208829585667      -20.27051709894776       -20.269802019823302      -20.269067272858017      -20.26831855856812       -20.267564291206863      -20.26681649901798       -20.26609000614713       -20.265395314130235      -20.26472477800665       -20.264050689028533      -20.263349047916776      -20.262617541041365      -20.2618675043221        -20.261111065353052      -20.26035647066695       -20.25960841221584       -20.25886933752978       -20.25814044249829       -20.2574222522453        -20.256714933299058      -20.256018457560128      -20.25533268894464       -20.254657430180348      -20.253992448899673
1.016016016016016        -20.25877999527708       -20.258267218417004      -20.257659337360533      -20.25697103048782       -20.256217965166144      -20.255415597418086      -20.25457859926968       -20.25372068134109       -20.25285441981993       -20.25199049220813       -20.251135821667322      -20.25029132765868       -20.249451959080446      -20.248610859071906      -20.247764553041726      -20.246914460802454      -20.246064823682097      -20.245220195535293      -20.244384167695006      -20.24355914288144       -20.242746551217245      -20.241947141383292      -20.241161217793156      -20.240388805275884      -20.23962975607253       -20.23888381753673       -20.238150674693017      -20.237429977089263      -20.236721355881354      -20.236024434804342
1.02002002002002         -20.245998299765922      -20.2449031533206        -20.24377175991996       -20.242623705456975      -20.24147374494609       -20.24033272523031       -20.2392080603719        -20.23810386036431       -20.237021088625742      -20.235958274473763      -20.234912939809817      -20.233883143722387      -20.232868292039633      -20.23186898617466       -20.23088638472542       -20.22992162131711       -20.228975497333014      -20.228048409161925      -20.2271403983179        -20.226251240163364      -20.225380529186616      -20.224527746605993      -20.22369230916985       -20.222873602535678      -20.222071003301544      -20.22128389313363       -20.22051166755176       -20.21975374116687       -20.21900955058753       -20.218278555808332
1.024024024024024        -20.231792970240132      -20.230244354656428      -20.228746341391144      -20.227298533837377      -20.225899063504038      -20.224544987574305      -20.2232327873481        -20.221958942268607      -20.220720417690554      -20.219514901600743      -20.218340761228998      -20.217196830338512      -20.216082171935415      -20.214995905352154      -20.213937116776094      -20.212904833104908      -20.211898030830653      -20.210915658409174      -20.209956659899607      -20.209019994581773      -20.208104651183433      -20.20720965714046       -20.206334083912235      -20.20547704941588       -20.204637718475436      -20.203815301970607      -20.203009055178857      -20.202218275654005      -20.201442300872912      -20.20068050580231
1.028028028028028        -20.215793465873197      -20.21411593133778       -20.212505865174457      -20.21095724113456       -20.209464738209405      -20.2080238009465        -20.206630612094592      -20.205281987389498      -20.203975231292247      -20.20270799588783       -20.20147816955474       -20.2002838027566        -20.19912306553161       -20.19799422664789       -20.196895645087906      -20.19582576723215       -20.19478312583301       -20.19376633885711       -20.19277410748014       -20.1918052131448        -20.19085851386109       -20.189932940003608      -20.18902748984695       -20.18814122503275       -20.18727326610978       -20.18642278824188       -20.185589017141965      -20.184771225263567      -20.183968728262094      -20.183180881725242
1.032032032032032        -20.198974145974308      -20.197284008089042      -20.195657324085353      -20.19408933152458       -20.19257590528587       -20.191113431540828      -20.189698699350174      -20.188328815349436      -20.187001141217877      -20.185713250046582      -20.18446289653477       -20.183247996355867      -20.1820666111386        -20.180916936677637      -20.179797292934932      -20.17870611504783       -20.177641944964314      -20.176603423551235      -20.17558928313178       -20.17459834045425       -20.17362949010565       -20.172681698379332      -20.17175399759696       -20.170845480875318      -20.16995529732071       -20.169082647628013      -20.168226780058166      -20.16738698676623       -20.16656260045176       -20.165752991304082
1.0360360360360361       -20.181855951873935      -20.180185918516433      -20.178574025934285      -20.177016539868614      -20.175510076478137      -20.174051548643554      -20.17263812504555       -20.17126719876918       -20.16993636270222       -20.16864338964959       -20.167386215700382      -20.16616292587546       -20.164971741439413      -20.163811008496346      -20.162679187637686      -20.161574844496634      -20.160496641112484      -20.15944332803376       -20.158413737101867      -20.157406774862885      -20.15642141655933       -20.15545670065479       -20.154511723847335      -20.153585636529154      -20.15267763865264       -20.151786975965575      -20.150912936580944      -20.150054847849606      -20.14921207350701       -20.148384011067257
1.04004004004004         -20.164666564385087      -20.163023758638232      -20.161434092802114      -20.159894431199422      -20.15840188677597       -20.156953795348404      -20.15554769378707       -20.154181301187535      -20.152852502364873      -20.151559333207572      -20.150299967567726      -20.149072705456945      -20.14787596237847       -20.14670825966406       -20.145568215709883      -20.144454538021932      -20.14336601599267       -20.14230151433969       -20.14125996714347       -20.140240372427158      -20.13924178722677       -20.138263323104365      -20.137304142061456      -20.13636345281391       -20.13544050739305       -20.134534598041398      -20.133645054374448      -20.13277124078281       -20.131912554051613      -20.131068421176487
1.044044044044044        -20.147500721832188      -20.145882621369893      -20.144313370015414      -20.142790282592816      -20.141310871438257      -20.1398728285261        -20.138474009529823      -20.137112419539225      -20.135786200216714      -20.134493618218233      -20.133233054735143      -20.132002996035027      -20.130802024896862      -20.129628812848054      -20.128482113122427      -20.127360754266434      -20.126263634328602      -20.125189715574358      -20.124138019673858      -20.123107623315978      -20.122097654206698      -20.12110728741389       -20.1201357420249        -20.119182278086658      -20.11824619380096       -20.117326822950826      -20.116423532535862      -20.11553572059727       -20.11466281421477       -20.11380426765974
1.048048048048048        -20.130394695554692      -20.12879609435071       -20.127242894742494      -20.12573275868594       -20.1242635096091        -20.12283311856987       -20.121439691785135      -20.120081459377573      -20.118756765207124      -20.117464057671253      -20.116201881371758      -20.114968869557725      -20.113763737264726      -20.11258527507873       -20.11143234346146       -20.110303867580562      -20.109198832594025      -20.108116279343825      -20.107055300418594      -20.106015036549167      -20.1049946733051        -20.103993438063053      -20.103010597221594      -20.102045453639164      -20.10109734427456       -20.100165638011408      -20.09924973364988       -20.098349058050818      -20.09746306441866       -20.09659123071104
1.052052052052052        -20.11336115754488       -20.111776830476693      -20.110235203846564      -20.108734201221623      -20.107271881115985      -20.10584642597769       -20.10445613222826       -20.103099401242478      -20.101774731168803      -20.100480709502378      -20.099216006332735      -20.097979368196775      -20.09676961247573       -20.095585622281142      -20.09442634178146       -20.09329077192571       -20.092177966525462      -20.09108702866087       -20.090017107379623      -20.088967394661367      -20.087937122623         -20.08692556094242       -20.085932014481138      -20.084955821087828      -20.083996349566718      -20.083052997796464      -20.082125190986403      -20.081212380058577      -20.080314040144806      -20.07942966918924
1.0560560560560561       -20.096403627563568      -20.094829076004963      -20.09329511320191       -20.091799858763896      -20.090341547885835      -20.088918522381633      -20.087529222542244      -20.08617217973218       -20.084846009648064      -20.083549406171556      -20.082281135756773      -20.081040032298752      -20.079824992435697      -20.078634971242536      -20.077468978278503      -20.076326073954824      -20.07520536619267       -20.07410600734438       -20.073027191353997      -20.07196815113535       -20.070928156148483      -20.069906510156727      -20.06890254914893       -20.067915639412526      -20.066945175744717      -20.065990579790125      -20.065051298494538      -20.064126802665207      -20.063216585629135      -20.062320161981454
1.06006006006006         -20.079522139565324      -20.07795367081469       -20.076424126867973      -20.07493177542697       -20.07347498561942       -20.072052220502528      -20.070662030226906      -20.06930304579403       -20.067973973347698      -20.066673588946905      -20.065400733773306      -20.06415430973132       -20.062933275403868      -20.061736642330132      -20.060563471575946      -20.059412870569837      -20.05828399018091       -20.057176022017124      -20.056088195924517      -20.055019777670037      -20.053970066792296      -20.05293839460599       -20.051924122347202      -20.050926639447976      -20.04994536192966       -20.048979730905433      -20.048029211183326      -20.047093289961882      -20.046171475611313      -20.045263296533417
1.064064064064064        -20.062715465978783      -20.061150086165632      -20.05962230456138       -20.058130502375512      -20.056673151758613      -20.05524880936551       -20.053856110461968      -20.052493763521632      -20.051160545266118      -20.049855296106077      -20.048576915945905      -20.047324360318083      -20.04609663681759       -20.044892801808864      -20.04371195738145       -20.042553248532442      -20.041415860555905      -20.04029901662183       -20.039201975528517      -20.03812402961377       -20.037064502812143      -20.036022748846072      -20.03499814954024       -20.033990113249395      -20.032998073390715      -20.03202148707257       -20.03105983381228       -20.030112614336137      -20.02917934945566       -20.02825957901408
1.0680680680680683       -20.045982001800745      -20.044417279624504      -20.042889084517977      -20.04139588615939       -20.039936237265547      -20.038508767929144      -20.037112180416         -20.035745244378692      -20.034406792448337      -20.0330957161696        -20.0318109622482        -20.030551529082867      -20.029316463556952      -20.028104858066875      -20.026915847767334      -20.025748608014858      -20.024602351993025      -20.023476328504483      -20.02236981991605       -20.021282140244576      -20.020212633372452      -20.01916067138236       -20.01812565300216       -20.01710700215133       -20.01610416658133       -20.01511661660267       -20.014143843892374      -20.013185360375864      -20.012240697177827      -20.011309403637128
1.072072072072072        -20.029320114806456      -20.027754060876365      -20.026223658268933      -20.024727446789505      -20.02326404320881       -20.02183213617616       -20.020430481532188      -20.019057897984492      -20.017713263113983      -20.016395509682354      -20.015103622214735      -20.013836633833357      -20.012593623321322      -20.01137371239671       -20.01017606317978       -20.008999875837397      -20.007844386390143      -20.006708864669278      -20.005592612411526      -20.004494961480926      -20.003415272207956      -20.002352931836874      -20.00130735307309       -20.00027797272317       -19.999264250420406      -19.998265667429944      -19.99728172552742       -19.996311945946047      -19.995355868387172      -19.994413050089854
1.0760760760760761       -20.01272827804616       -20.011159248303485      -20.00962514531897       -20.008124565390286      -20.006656177021362      -20.005218716272882      -20.003810982467733      -20.002431834219916      -20.00108018575881       -19.99975500352329       -19.998455303003087      -19.997180145806205      -19.995928636934075      -19.994699922247158      -19.993493186105677      -19.99230764917153       -19.99114256635846       -19.98999722491903       -19.988870942657893      -19.98776306626135       -19.986672969734887      -19.985600052940185      -19.98454374022449       -19.983503479135493      -19.982478739215487      -19.98146901086922       -19.980473804300036      -19.979492648509716      -19.9785250903574        -19.97757069367363
1.08008008008008         -19.996205112836485      -19.994631733969428      -19.99309267559416       -19.991586580208683      -19.99011215871797       -19.988668186123213      -19.987253497532656      -19.985866984465865      -19.984507591426794      -19.983174312722895      -19.981866189510026      -19.980582307044468      -19.979321792125432      -19.9780838107127        -19.976867565705533      -19.97567229487028       -19.974497268905097      -19.973341789631313      -19.97220518830185       -19.971086824017856      -19.969986082245697      -19.968902373426644      -19.96783513167285       -19.96678381354319       -19.965747896893365      -19.96472687979501       -19.963720279518988      -19.96272763157849       -19.96174848882778       -19.96078242061283
1.0840840840840842       -19.979749395844294      -19.978170508344597      -19.97662542857008       -19.975112837336464      -19.97363148077989       -19.97218016631399       -19.97075775888262       -19.969363177483064      -19.96799539193743       -19.966653419891532      -19.965336324023095      -19.964043209442         -19.962773221267785      -19.96152554237003       -19.960299391259213      -19.95909402011642       -19.957908712951195      -19.956742783878113      -19.955595575503043      -19.954466457411016      -19.953354824748498      -19.95226009689294       -19.95118171620359       -19.950119146847715      -19.949071873697015      -19.948039401289243      -19.947021252850647      -19.946016969375073      -19.9450261087559        -19.94404824496722
1.088088088088088        -19.963360053152535      -19.961774667887155      -19.960222652091893      -19.958702718782398      -19.957213643746314      -19.95575426171572       -19.954323462815093      -19.95292018926167       -19.95154343229769       -19.950192229335585      -19.94886566129917       -19.947562850145218      -19.9462829565514        -19.94502517775754       -19.943788745548577      -19.94257292436846       -19.941377009555048      -19.940200325687144      -19.93904222503541       -19.93790208610952       -19.93677931229473       -19.9356733305714        -19.93458359031172       -19.933509562148064      -19.93245073690826       -19.931406624612976      -19.930376753531053      -19.929360669289014      -19.92835793403094       -19.927368125625556
1.092092092092092        -19.94703615118012       -19.94544341616056       -19.94388367209009       -19.9423556593817        -19.940858179083875      -19.939390089229427      -19.9379503014437        -19.936537777790623      -19.935151527837625      -19.93379060592168       -19.932454108600762      -19.931141172275996      -19.929850970971618      -19.928582714260223      -19.927335645322707      -19.926109039132594      -19.92490220075552       -19.923714463755545      -19.922545188700408      -19.921393761758612      -19.92025959338198       -19.919142117067366      -19.918040788192215      -19.916955082918825      -19.915884497162487      -19.91482854561936       -19.91378676084989       -19.912758692414137      -19.91174390605566       -19.91074198293065
1.0960960960960962       -19.930776888717926      -19.929176063558995      -19.92760789886279       -19.926071158633732      -19.92456466569491       -19.92308729818363       -19.921637986293163      -19.920215709240598      -19.918819492442815      -19.917448404883874      -19.916101556659253      -19.91477809668268       -19.913477210543714      -19.912198118504065      -19.9109400736227        -19.90970235999998       -19.908484291132         -19.90728520836737       -19.906104479458822      -19.904941497202977      -19.903795678162158      -19.902666461462275      -19.901553307661786      -19.90045569768664       -19.89937313182686       -19.89830512879058       -19.897251224811654      -19.89621097280742       -19.895183941583188      -19.894169715080526
1.1001001001001          -19.91458159194296       -19.91297202816745       -19.911394832968355      -19.90984879090431       -19.908332743786556      -19.90684558729837       -19.905386267849806      -19.903953779648795      -19.90254716197141       -19.901165496615597      -19.899807905524362      -19.898473548565054      -19.897161621453265      -19.895871353810072      -19.894602007343103      -19.893352874142032      -19.89212327508023       -19.89091255831498       -19.889720097879195      -19.888545292358025      -19.88738756364472       -19.88624635576989       -19.8851211337994        -19.88401138279607       -19.88291660684097       -19.881836328110264      -19.880770086003988      -19.879717436323276      -19.878677950492992      -19.877651214826713
1.1041041041041044       -19.8984497133129        -19.896830839170203      -19.895244072553833      -19.893688216142824      -19.892162128501308      -19.890664720803933      -19.88919495378767       -19.88775183491151       -19.886334415708         -19.884941789311398      -19.883573088149095      -19.88222748178351       -19.88090417489351       -19.879602405384574      -19.8783214426184        -19.877060585753178      -19.87581916218646       -19.874596526093303      -19.87339205705303       -19.87220515875814       -19.871035257799946      -19.86988180252541       -19.86874426196045       -19.867622124795208      -19.866514898427056      -19.86542210805762       -19.864343295840154      -19.863278020074077      -19.86222585444357       -19.86118638729742
1.1081081081081081       -19.882380834959868      -19.880752143815734      -19.87915532344732       -19.877589192703         -19.876052625106823      -19.874544545676134      -19.873063927957592      -19.87160979126414       -19.87018119809737       -19.868777251740674      -19.867397094010343      -19.86603990315237       -19.864704891874357      -19.863391305502063      -19.862098420251836      -19.86082554161031       -19.859572002813614      -19.858337163419076      -19.85712040796296       -19.855921144697955      -19.8547388044053        -19.853572839276033      -19.852422721856964      -19.851287944056832      -19.850168016208755      -19.84906246618521       -19.84797083856203       -19.846892693828426      -19.845827607639904      -19.844775170111358
1.112112112112112        -19.866374677269686      -19.864735718925335      -19.863128413255545      -19.861551593720804      -19.86000414737462       -19.858485011762006      -19.85699317202974       -19.855527658231427      -19.854087542812387      -19.85267193826033       -19.851279994909284      -19.849910898885106      -19.848563870182144      -19.847238160861153      -19.845933053359786      -19.844647858907464      -19.843381916037032      -19.84213458918648       -19.84090526738435       -19.839693363012966      -19.83849831064419       -19.83731956594272       -19.836156604632375      -19.835008921521162      -19.83387602958119       -19.832757459079907      -19.831652756759148      -19.830561485059153      -19.829483221384493      -19.828417557409235
1.1161161161161162       -19.850431113626744      -19.848781488172417      -19.84716331090602       -19.845575428672042      -19.844016740926836      -19.842486196709057      -19.840982791816067      -19.839505566169816      -19.83805360135759       -19.836626018334115      -19.8352219752729        -19.83384066555539       -19.832481315887907      -19.831143184536753      -19.829825559672994      -19.82852775781907       -19.827249122389773      -19.8259890223211        -19.824746850780798      -19.8235220239548        -19.822313979904628      -19.821122177490597      -19.81994609535669       -19.818785230972857      -19.817639099730876      -19.816507234090473      -19.815389182772186      -19.81428450999425       -19.81319279475041       -19.812113630126337
1.12012012012012         -19.834550192806702      -19.832889546835403      -19.831260153533684      -19.829660872183993      -19.828090613780603      -19.82654833806495       -19.825033050761665      -19.823543800999296      -19.822079678901645      -19.820639813336363      -19.819223369809357      -19.817829548493492      -19.816457582382206      -19.81510673555838       -19.81377630157052       -19.81246560190823       -19.811173984570026      -19.80990082271706       -19.808645513406656      -19.807407476400122      -19.806186153039974      -19.8049810051916        -19.803791514245187      -19.80261718017396       -19.80145752064488       -19.8003120701785        -19.799180379354752      -19.798062014061724      -19.796956554784774      -19.79586359593332
1.1241241241241244       -19.81873217126327       -19.817060196497582      -19.81541928339263       -19.813808302972074      -19.812226177135877      -19.810671875754743      -19.809144413960585      -19.807642849617288      -19.80616628095827       -19.804713844377794      -19.803284712364658      -19.801878091567403      -19.8004932209815        -19.799129370249503      -19.797785838065952      -19.7964619506797        -19.795157060486478      -19.793870544705655      -19.79260180413514       -19.79135026197905       -19.790115362743453      -19.788896571195153      -19.78769337137966       -19.78650526569436       -19.7853317740131        -19.784172432859076      -19.78302679462274       -19.781894426821985      -19.780774911401856      -19.779667844071387
1.1281281281281281       -19.80297755871408       -19.80129399336715       -19.799641298719354      -19.79801835706704       -19.796424100798134      -19.79485750954092       -19.793317607504612      -19.791803460996483      -19.790314176102072      -19.78884889651605       -19.787406801512372      -19.785987104043322      -19.78458904895805       -19.78321191133166       -19.78185499489716       -19.780517630572657      -19.779199175077288      -19.77789900962944       -19.77661653872182       -19.775351188967843      -19.77410240801473       -19.772869663518637      -19.77165244217781       -19.7704502488199        -19.769262605539883      -19.76808905088539       -19.76692913908628       -19.765782439325843      -19.764648535050856      -19.763527023318183
1.132132132132132        -19.787287182224347      -19.78559181578049       -19.78392712446058       -19.782292001582885      -19.780685389811744      -19.779106278356902      -19.777553700360805      -19.77602673045888       -19.774524482499732      -19.77304610741287       -19.77159079121321       -19.770157753131773      -19.768746243863696      -19.767355543924698      -19.765984962108384      -19.764633834037173      -19.76330152080014       -19.761987407671818      -19.76069090290637       -19.75941143660181       -19.75814845962985       -19.756901442626592      -19.755669875040333      -19.75445326423261       -19.753251134629018      -19.752063026916698      -19.750888497285352      -19.749727116709273      -19.748578470267734      -19.747442156501307
1.1361361361361364       -19.771662276856254      -19.769954959500648      -19.768278112009238      -19.76663063868884       -19.765011492476447      -19.76341967218624       -19.76185421994078       -19.760314218771995      -19.758798790379043      -19.757307093031024      -19.755838319603853      -19.754391695741113      -19.752966478130055      -19.751561952884124      -19.750177434024508      -19.74881226205371       -19.74746580261449       -19.746137445228406      -19.744826602108414      -19.74353270704041       -19.742255214329234      -19.7409935978046        -19.739747349883253      -19.738515980683463      -19.737299017188626      -19.73609600245679       -19.73490649487318       -19.733730067443098      -19.732566307122788      -19.731414814185772
1.14014014014014         -19.756104615697055      -19.754385274498105      -19.752696182498987      -19.751036255189458      -19.749404455995997      -19.747799793573847      -19.74622131927995       -19.74466812481269       -19.743139340005595      -19.741634130763465      -19.740151697130198      -19.73869127147855       -19.73725211681303       -19.73583352517746       -19.73443481616003       -19.733055335488697      -19.731694453710677      -19.73035156495015       -19.72902608573898       -19.72771745391509       -19.726425127584537      -19.72514858414248       -19.72388731934955       -19.722640846459882      -19.72140869539754       -19.72019041197827       -19.71898555717373       -19.71779370641564       -19.716614448937456      -19.715447387151187
1.1441441441441444       -19.740616700221864      -19.738885365653303      -19.73718403757416       -19.735511643103713      -19.733867156622026      -19.732249597104992      -19.73065802563729       -19.729091543089183      -19.727549287944772      -19.7260304342702        -19.724534189811457      -19.723059794212013      -19.721606517341836      -19.720173657729376      -19.71876054108941       -19.717366518939958      -19.71599096730185       -19.714633285475454      -19.713292894889186      -19.711969238014856      -19.710661777345617      -19.709369994432148      -19.70809338897341       -19.706831477958453      -19.70558379485594       -19.704349888848586      -19.703129324109515      -19.7019216791182        -19.70072654601357       -19.699543529982048