% Model:              silver_v2.mph
% Version:            COMSOL 5.4.0.295
% Date:               Aug 24 2022, 16:19
% Table:              Tabella 3 - ADMITTANCE (abs(es.Y11))
% freq (GHz)                                      d=0.05, 10*log10(abs(es.Y11))                     d=0.058621, 10*log10(abs(es.Y11))                 d=0.067241, 10*log10(abs(es.Y11))                 d=0.075862, 10*log10(abs(es.Y11))                 d=0.084483, 10*log10(abs(es.Y11))                 d=0.093103, 10*log10(abs(es.Y11))                 d=0.10172, 10*log10(abs(es.Y11))                  d=0.11034, 10*log10(abs(es.Y11))                  d=0.11897, 10*log10(abs(es.Y11))                  d=0.12759, 10*log10(abs(es.Y11))                  d=0.13621, 10*log10(abs(es.Y11))                  d=0.14483, 10*log10(abs(es.Y11))                  d=0.15345, 10*log10(abs(es.Y11))                  d=0.16207, 10*log10(abs(es.Y11))                  d=0.17069, 10*log10(abs(es.Y11))                  d=0.17931, 10*log10(abs(es.Y11))                  d=0.18793, 10*log10(abs(es.Y11))                  d=0.19655, 10*log10(abs(es.Y11))                  d=0.20517, 10*log10(abs(es.Y11))                  d=0.21379, 10*log10(abs(es.Y11))                  d=0.22241, 10*log10(abs(es.Y11))                  d=0.23103, 10*log10(abs(es.Y11))                  d=0.23966, 10*log10(abs(es.Y11))                  d=0.24828, 10*log10(abs(es.Y11))                  d=0.2569, 10*log10(abs(es.Y11))                   d=0.26552, 10*log10(abs(es.Y11))                  d=0.27414, 10*log10(abs(es.Y11))                  d=0.28276, 10*log10(abs(es.Y11))                  d=0.29138, 10*log10(abs(es.Y11))                  d=0.3, 10*log10(abs(es.Y11))
1                                                 -20.33105929934453                                -20.33006795071056                                -20.329093644677954                               -20.32813512461177                                -20.32719116011755                                -20.326260529261                                  -20.325341990036094                               -20.32443423276788                                -20.323535797773914                               -20.32264492670718                                -20.321759278809765                               -20.32087534753323                                -20.319987134679035                               -20.31908269068609                                -20.318133087901757                               -20.317044174237306                               -20.315295091684064                               -20.31872881593396                                -20.316316263281283                               -20.315163820227788                               -20.31423807620377                                -20.313391705137374                               -20.312585167722798                               -20.31180342696696                                -20.311039454240994                               -20.310289457318213                               -20.309551147181732                               -20.308823004575714                               -20.3081039337366                                 -20.30739308511402
1.004004004004004                                 -20.312096363186598                               -20.311142448299165                               -20.310205488214166                               -20.309283713891602                               -20.308375336202317                               -20.30747853071045                                -20.30659140421539                                -20.305711926384745                               -20.304837796201447                               -20.303966185811724                               -20.303093250779007                               -20.302213212069212                               -20.301316928357235                               -20.300393198965807                               -20.299480114024476                               -20.299121563368274                               -20.299128621866473                               -20.298266098921097                               -20.29733828720492                                -20.296463927028256                               -20.29562864962586                                -20.294819374640205                               -20.294028654228946                               -20.293252237995127                               -20.292487558241756                               -20.29173295621596                                -20.29098728375704                                -20.29024969013578                                -20.289519503342326                               -20.288796161666
1.008008008008008                                 -20.29285749476333                                -20.2920037426337                                 -20.291165854700584                               -20.290339950976836                               -20.289522213059268                               -20.28870899759026                                -20.28789692370001                                -20.287082931685415                               -20.28626436146352                                -20.285439280308747                               -20.284607968695045                               -20.28377904051656                                -20.282991060007753                               -20.282347245173177                               -20.281863507729355                               -20.281255907901524                               -20.280474564499382                               -20.27964010581853                                -20.278804713747746                               -20.277980099856208                               -20.277167370566737                               -20.276365560000563                               -20.27557356317756                                -20.274790481330633                               -20.274015619822574                               -20.273248429511412                               -20.272488454583176                               -20.271735295903802                               -20.270988587361085                               -20.27024798128459
1.012012012012012                                 -20.274217651459896                               -20.273605826089952                               -20.272978667445955                               -20.272328645989788                               -20.271650958346484                               -20.270943507971385                               -20.27020678972363                                -20.26944399410796                                -20.268661873254782                               -20.267873100753484                               -20.267099466704977                               -20.266366528183433                               -20.26567015714038                                -20.264953381903325                               -20.26417342758261                                -20.26334340810958                                -20.262491354681988                               -20.261634856264543                               -20.260781943923636                               -20.259935873836884                               -20.259097868625755                               -20.258268311537535                               -20.25744722985564                                -20.25663448911822                                -20.255829873074394                               -20.255033118427953                               -20.25424393142737                                -20.253461996958173                               -20.252686984360583                               -20.251918551654924
1.016016016016016                                 -20.258693754842266                               -20.258141807614916                               -20.25748985092551                                -20.256754070377095                               -20.25595165131408                                -20.25509974882602                                -20.254215213304747                               -20.253314538718694                               -20.252412704555752                               -20.251518952524656                               -20.250630686366712                               -20.249734623752428                               -20.24881978690673                                -20.247886971376893                               -20.246944735361932                               -20.2460019914591                                 -20.245064899385234                               -20.244136959821432                               -20.243219911431652                               -20.24231447208425                                -20.241420796247386                               -20.2405387308024                                 -20.239667954090287                               -20.238808051812075                               -20.237958559346474                               -20.237118986047925                               -20.236288829645744                               -20.235467585025674                               -20.23465474970029                                -20.233849827247727
1.02002002002002                                  -20.2458042818833                                 -20.2446614725598                                 -20.243482914945506                               -20.242288903323026                               -20.241094719838557                               -20.239911381550474                               -20.238745615620925                               -20.237599434289386                               -20.23647050841861                                -20.235354449553494                               -20.234248074493458                               -20.233151141781516                               -20.2320656734411                                 -20.230994313184535                               -20.229939184357967                               -20.228901531867596                               -20.227881815223498                               -20.22687993355234                                -20.22589543248195                                -20.224927653890337                               -20.223975833340283                               -20.223039159983127                               -20.222116812095948                               -20.22120797752811                                -20.220311865013038                               -20.219427710010972                               -20.218554777297626                               -20.217692361628934                               -20.216839787281053                               -20.215996406947305
1.024024024024024                                 -20.231511225147084                               -20.22991912067605                                -20.228378756250528                               -20.22688911320539                                -20.225447423172294                               -20.224049629579536                               -20.2226911355292                                 -20.221367710844646                               -20.22007616508803                                -20.218814489700954                               -20.21758154123702                                -20.216376576539492                               -20.21519889444844                                -20.21404765967911                                -20.212921866146782                               -20.211820370737325                               -20.21074194772997                                -20.209685339074547                               -20.208649292281386                               -20.207632585659923                               -20.206634043427645                               -20.205652543588805                               -20.20468702100283                                -20.203736467419034                               -20.202799929696024                               -20.201876507006432                               -20.200965347537124                               -20.200065645001164                               -20.199176635151645                               -20.19829759240678
1.028028028028028                                 -20.215487260349157                               -20.21376542240646                                -20.21211125550918                                -20.21051799820419                                -20.208979728617305                               -20.207491459896232                               -20.206049108625255                               -20.204649347749893                               -20.203289404869746                               -20.201966871704226                               -20.200679563062494                               -20.19942543194381                                -20.19820252858969                                -20.19700898651965                                -20.195843021627553                               -20.19470293554845                                -20.193587118817664                               -20.192494052105147                               -20.191422305263966                               -20.190370534553935                               -20.18933747857428                                -20.188321953408064                               -20.187322847378887                               -20.1863391157094                                 -20.185369775275976                               -20.184413899580704                               -20.1834706140092                                 -20.182539091406614                               -20.181618547980477                               -20.180708239523817
1.032032032032032                                 -20.198665330956715                               -20.196928985380858                               -20.195256139432402                               -20.193641526178183                               -20.1920806087617                                 -20.190569435007856                               -20.189104510351683                               -20.187682696825284                               -20.18630113881736                                -20.184957211557926                               -20.183648486430585                               -20.182372707475785                               -20.18112777470141                                -20.17991173123621                                -20.178722752538132                               -20.17755913669202                                -20.1764192953399                                 -20.175301745068474                               -20.174205099215435                               -20.173128060110145                               -20.172069411776533                               -20.17102801311822                                -20.170002791593504                               -20.168992737374186                               -20.16799689797194                                -20.16701437330817                                -20.166044311198796                               -20.165085903222927                               -20.164138380943886                               -20.16320101245128
1.0360360360360361                                -20.181550497794156                               -20.179833510069916                               -20.178174633423364                               -20.176569671656523                               -20.175014839829398                               -20.17350670016466                                -20.172042112435193                               -20.17061819540405                                -20.169232296376837                               -20.167881966570608                               -20.16656494062701                                -20.165279119113336                               -20.164022553241587                               -20.16279343130315                                -20.161590066492685                               -20.160410885904323                               -20.159254420549495                               -20.15811929628454                                -20.157004225558815                               -20.155907999907296                               -20.15482948312034                                -20.153767605028975                               -20.15272135584904                                -20.151689781031727                               -20.150671976572095                               -20.14966708473096                                -20.14867429012934                                -20.14769281617837                                -20.146721921810705                               -20.14576089848291
1.04004004004004                                  -20.164366008800393                               -20.162676012078794                               -20.16103896056917                                -20.159451276835636                               -20.15790968359844                                -20.156411170442073                               -20.15495296553926                                -20.15353251130773                                -20.152147443207742                               -20.15079557110011                                -20.149474862735772                               -20.148183429052246                               -20.146919511026248                               -20.14568146788186                                -20.14446776649023                                -20.143276971822893                               -20.142107738340588                               -20.14095880221496                                -20.139828974293156                               -20.138717133725667                               -20.137622222187026                               -20.136543238626288                               -20.135479234491747                               -20.1344293093798                                 -20.133392607063616                               -20.132368311862056                               -20.131355645313242                               -20.130353863121467                               -20.129362252349008                               -20.12838012882773
1.044044044044044                                 -20.147204736518667                               -20.145539326140728                               -20.143922399800296                               -20.142350847664773                               -20.140821803343847                               -20.139332619708348                               -20.137880847512157                               -20.136464216422038                               -20.13508061813348                                -20.133728091305176                               -20.13240480808737                                -20.1311090620518                                 -20.129839257358103                               -20.128593899013257                               -20.12737158409888                                -20.126170993857293                               -20.124990886539898                               -20.12383009093373                                -20.122687500491516                               -20.121562067999633                               -20.120452800726042                               -20.119358755996576                               -20.11827903715448                                -20.11721278986265                                -20.1161591987128                                 -20.115117484109927                               -20.114086899403457                               -20.11306672824004                                -20.112056282115308                               -20.11105489810445
1.048048048048048                                 -20.13010235357322                                -20.128456334093077                               -20.12685520162043                                -20.12529620564272                                -20.123776799010265                               -20.12229461860548                                -20.12084746811535                                -20.119433302650624                               -20.118050214989374                               -20.116696423251557                               -20.11537025983631                                -20.114070161474796                               -20.11279466027024                                -20.1115423756124                                 -20.11031200686796                                -20.109102326760237                               -20.10791217536202                                -20.106740454634632                               -20.1055861234541                                 -20.10444819307244                                -20.103325722967938                               -20.102217817043645                               -20.101123620137933                               -20.100042314815063                               -20.098973118407038                               -20.097915280281413                               -20.09686807931214                                -20.095830821533177                               -20.094802837956543                               -20.093783482538456
1.052052052052052                                 -20.11307148598517                                -20.111439610390846                               -20.109849792881054                               -20.108299552259762                               -20.10678658123197                                -20.105308730488453                               -20.103863994471745                               -20.102450498622098                               -20.10106648792796                                -20.099710316628098                               -20.098380438932043                               -20.097075400642034                               -20.095793831574706                               -20.094534438692992                               -20.09329599986981                                -20.092077358214816                               -20.090877416903275                               -20.089695134453805                               -20.088529520407583                               -20.087379631367178                               -20.08624456735804                                -20.085123468479495                               -20.084015511816045                               -20.082919908582696                               -20.081835901480964                               -20.080762762244525                               -20.0796997893557                                 -20.07864630591581                                -20.077601657654185                               -20.076565211061897
1.0560560560560561                                -20.096115776807682                               -20.094493513116337                               -20.092911085732425                               -20.091366213805205                               -20.089856768869275                               -20.088380761401467                               -20.086936328752945                               -20.085521724293987                               -20.084135307630298                               -20.08277553576763                                -20.08144095511726                                -20.080130194248213                               -20.07884195730394                                -20.077575018011025                               -20.076328214216247                               -20.0751004428961                                 -20.073890655588954                               -20.072697854206293                               -20.07152108718386                                -20.070359445938344                               -20.069212061598755                               -20.068078101984884                               -20.066956768808332                               -20.06584729507398                                -20.06474894266203                                -20.063661000072663                               -20.06258278031717                                -20.061513618940772                               -20.06045287216388                                -20.05939991512956
1.06006006006006                                  -20.07923540891096                                -20.077619027915855                               -20.076040722666896                               -20.0744983622347                                 -20.07298995231126                                -20.071513623549254                               -20.070067621054143                               -20.068650294895892                               -20.06726009152434                                -20.065895545987033                               -20.064555274860872                               -20.063237969819756                               -20.06194239177018                                -20.060667365494243                               -20.059411774747264                               -20.05817455776276                                -20.056954703123203                               -20.055751245959424                               -20.05456326444567                                -20.053389876560736                               -20.052230237088796                               -20.05108353483616                                -20.049948990042434                               -20.04882585196697                                -20.047713396632872                               -20.046610924712578                               -20.045517759540555                               -20.044433245239574                               -20.04335674494825                                -20.042287639138486
1.064064064064064                                 -20.06242928668882                                -20.060815758636352                               -20.05923889321947                                -20.0576966730442                                 -20.05618720563796                                -20.054708713080895                               -20.053259522629485                               -20.051838058220866                               -20.050442832760055                               -20.04907244110484                                -20.04772555367319                                -20.046400910606987                               -20.045097316434145                               -20.04381363517714                                -20.04254878586257                                -20.04130173839107                                -20.040071509731288                               -20.03885716040581                                -20.037657791239933                               -20.036472540347336                               -20.03530058032934                                -20.03414111566628                                -20.032993380282015                               -20.03185663526381                                -20.030730166721504                               -20.029613283771063                               -20.028505316628614                               -20.027405614802017                               -20.02631354536767                                -20.025228491320824
1.0680680680680683                                -20.04569591212444                                -20.044082772071054                               -20.04250514450812                                -20.040961099203205                               -20.039448822008122                               -20.037966605439422                               -20.036512840135032                               -20.0350860070904                                 -20.033684670590176                               -20.03230747176111                                -20.0309531226809                                 -20.029620400985337                               -20.028308144922583                               -20.02701524880925                                -20.025740658847884                               -20.024483369269927                               -20.023242418771808                               -20.022016887215358                               -20.020805892566425                               -20.01960858804815                                -20.018424159487665                               -20.017251822836503                               -20.016090821846962                               -20.014940425887815                               -20.013799927883895                               -20.012668642364968                               -20.011545903610006                               -20.010431063873256                               -20.009323491679                                  -20.008222570171576